<?xml version="1.0"?>
<VTKFile type="UnstructuredGrid"  version="0.1"  >
<UnstructuredGrid>
<Piece  NumberOfPoints="1862" NumberOfCells="6139">
<Points>
<DataArray  type="Float64"  NumberOfComponents="3"  format="ascii">-17.5924072265625 13.18930816650391 -9  -17.47499847412109 13.6656494140625 -6.5  -17.47499847412109 13.6656494140625 -9  -17.5924072265625 14.14199066162109 -6.5  -17.5924072265625 14.14199066162109 -9  -17.91773223876953 14.50920963287354 -6.5  -17.91773223876953 14.50920963287354 -9  -18.37644958496094 14.68317794799805 -6.5  -18.37644958496094 14.68317794799805 -9  -18.86347007751465 14.62404251098633 -6.5  -18.86347007751465 14.62404251098633 -9  -19.2672233581543 14.34535121917725 -6.5  -19.2672233581543 14.34535121917725 -9  -19.49521636962891 13.91094970703125 -6.5  -19.49521636962891 13.91094970703125 -9  -19.49521636962891 13.4203519821167 -6.5  -19.49521636962891 13.4203519821167 -9  -19.2672233581543 12.98594951629639 -6.5  -19.2672233581543 12.98594951629639 -9  -18.86347007751465 12.7072582244873 -6.5  -18.86347007751465 12.7072582244873 -9  -18.37644958496094 12.6481237411499 -6.5  -18.37644958496094 12.6481237411499 -9  -17.91773223876953 12.82209205627441 -6.5  -17.91773223876953 12.82209205627441 -9  -17.5924072265625 13.18930816650391 -6.5  -18.5 13.6656494140625 -9.61588191986084  -13.67191410064697 -1.838693618774414 -14.7002010345459  -13.86397171020508 -0.9280836582183838 -14.72699546813965  -13.79500007629395 0 -14.7002010345459  -13.86397171020508 0.9280836582183838 -14.72699546813965  -13.67191410064697 1.838693618774414 -14.7002010345459  -13.61656761169434 2.767689228057861 -14.72699546813965  -13.30485248565674 3.644575595855713 -14.7002010345459  -13.12617683410645 4.557905673980713 -14.72699546813965  -12.70036602020264 5.385420322418213 -14.7002010345459  -12.40155029296875 6.266785621643066 -14.72699546813965  -11.86923980712891 7.03016185760498 -14.7002010345459  -11.45561599731445 7.863835334777832 -14.72699546813965  -10.82630729675293 8.549449920654297 -14.7002010345459  -10.30525588989258 9.320553779602051 -14.72699546813965  -9.590179443359375 9.916172981262207 -14.7002010345459  -8.970998764038086 10.61094760894775 -14.72699546813965  -8.182914733886719 11.10594177246094 -14.7002010345459  -7.476654052734375 11.71198844909668 -14.72699546813965  -6.62962532043457 12.09752464294434 -14.7002010345459  -5.848888874053955 12.60402774810791 -14.72699546813965  -4.958030223846436 12.87322616577148 -14.7002010345459  -4.116749286651611 13.27114963531494 -14.72699546813965  -3.197958946228027 13.4192066192627 -14.7002010345459  -2.31114649772644 13.70144653320312 -14.72699546813965  -1.380820155143738 13.7257194519043 -14.7002010345459  -0.4643011093139648 13.88724136352539 -14.72699546813965  0.4609596133232117 13.78729629516602 -14.7002010345459  1.390829682350159 13.82521629333496 -14.72699546813965  2.294513463973999 13.60283946990967 -14.7002010345459  3.22114109992981 13.51648235321045 -14.72699546813965  4.087121963500977 13.17563915252686 -14.7002010345459  4.99397087097168 12.96654510498047 -14.72699546813965  5.8067946434021 12.51331901550293 -14.7002010345459  6.67768383026123 12.18521976470947 -14.72699546813965  7.422845840454102 11.62769889831543 -14.7002010345459  8.242233276367188 11.186448097229 -14.72699546813965  8.906435966491699 10.53458213806152 -14.7002010345459  9.659698486328125 9.988055229187012 -14.72699546813965  10.2310905456543 9.253475189208984 -14.7002010345459  10.90478801727295 8.611424446105957 -14.72699546813965  11.37317180633545 7.807240009307861 -14.7002010345459  11.95528030395508 7.081122875213623 -14.72699546813965  12.31229782104492 6.22168493270874 -14.7002010345459  12.79242992401123 5.424458980560303 -14.72699546813965  13.03171062469482 4.525103092193604 -14.7002010345459  13.40129947662354 3.670995235443115 -14.72699546813965  13.5185718536377 2.747770547866821 -14.7002010345459  13.77102088928223 1.852022290229797 -14.72699546813965  13.76419448852539 0.9214043617248535 -14.7002010345459  13.89500045776367 0 -14.72699546813965  13.76419448852539 -0.9214043617248535 -14.7002010345459  13.77102088928223 -1.852022290229797 -14.72699546813965  13.5185718536377 -2.747770547866821 -14.7002010345459  13.40129947662354 -3.670995235443115 -14.72699546813965  13.03171062469482 -4.525103092193604 -14.7002010345459  12.79242992401123 -5.424458980560303 -14.72699546813965  12.31229782104492 -6.22168493270874 -14.7002010345459  11.95528030395508 -7.081122875213623 -14.72699546813965  11.37317180633545 -7.807240009307861 -14.7002010345459  10.90478801727295 -8.611424446105957 -14.72699546813965  10.2310905456543 -9.253475189208984 -14.7002010345459  9.659698486328125 -9.988055229187012 -14.72699546813965  8.906435966491699 -10.53458213806152 -14.7002010345459  8.242233276367188 -11.186448097229 -14.72699546813965  7.422845840454102 -11.62769889831543 -14.7002010345459  6.67768383026123 -12.18521976470947 -14.72699546813965  5.8067946434021 -12.51331901550293 -14.7002010345459  4.99397087097168 -12.96654510498047 -14.72699546813965  4.087121963500977 -13.17563915252686 -14.7002010345459  3.22114109992981 -13.51648235321045 -14.72699546813965  2.294513463973999 -13.60283946990967 -14.7002010345459  1.390829682350159 -13.82521629333496 -14.72699546813965  0.4609596133232117 -13.78729629516602 -14.7002010345459  -0.4643011093139648 -13.88724136352539 -14.72699546813965  -1.380820155143738 -13.7257194519043 -14.7002010345459  -2.31114649772644 -13.70144653320312 -14.72699546813965  -3.197958946228027 -13.4192066192627 -14.7002010345459  -4.116749286651611 -13.27114963531494 -14.72699546813965  -4.958030223846436 -12.87322616577148 -14.7002010345459  -5.848888874053955 -12.60402774810791 -14.72699546813965  -6.62962532043457 -12.09752464294434 -14.7002010345459  -7.476654052734375 -11.71198844909668 -14.72699546813965  -8.182914733886719 -11.10594177246094 -14.7002010345459  -8.970998764038086 -10.61094760894775 -14.72699546813965  -9.590179443359375 -9.916172981262207 -14.7002010345459  -10.30525588989258 -9.320553779602051 -14.72699546813965  -10.82630729675293 -8.549449920654297 -14.7002010345459  -11.45561599731445 -7.863835334777832 -14.72699546813965  -11.86923980712891 -7.03016185760498 -14.7002010345459  -12.40155029296875 -6.266785621643066 -14.72699546813965  -12.70036602020264 -5.385420322418213 -14.7002010345459  -13.12617683410645 -4.557905673980713 -14.72699546813965  -13.30485248565674 -3.644575595855713 -14.7002010345459  -13.61656761169434 -2.767689228057861 -14.72699546813965  -13.87012958526611 1.865350961685181 -14.90019989013672  -13.9517126083374 0.9339573383331299 -14.83179569244385  -13.99499988555908 0 -14.90019989013672  -13.9517126083374 -0.9339573383331299 -14.83179569244385  -13.87012958526611 -1.865350961685181 -14.90019989013672  -13.70274448394775 -2.785205364227295 -14.83179569244385  -13.49774551391602 -3.697414636611938 -14.90019989013672  -13.20924949645996 -4.586751461029053 -14.83179569244385  -12.88449478149414 -5.463497638702393 -14.90019989013672  -12.48003578186035 -6.30644702911377 -14.83179569244385  -12.04131984710693 -7.132084846496582 -14.90019989013672  -11.52811527252197 -7.91360330581665 -14.83179569244385  -10.98326683044434 -8.673399925231934 -14.90019989013672  -10.37047576904297 -9.379541397094727 -14.83179569244385  -9.729217529296875 -10.05993747711182 -14.90019989013672  -9.027774810791016 -10.67810153961182 -14.83179569244385  -8.30155086517334 -11.26695537567139 -14.90019989013672  -7.523972511291504 -11.78610992431641 -14.83179569244385  -6.725741386413574 -12.27291488647461 -14.90019989013672  -5.885905265808105 -12.68379688262939 -14.83179569244385  -5.029911994934082 -13.05986309051514 -14.90019989013672  -4.142803192138672 -13.35513973236084 -14.83179569244385  -3.244323253631592 -13.6137580871582 -14.90019989013672  -2.325773000717163 -13.78816032409668 -14.83179569244385  -1.40083920955658 -13.92471408843994 -14.90019989013672  -0.4672395884990692 -13.97513008117676 -14.83179569244385  0.467642605304718 -13.98718452453613 -14.90019989013672  1.399631977081299 -13.9127140045166 -14.83179569244385  2.327779293060303 -13.80005359649658 -14.90019989013672  3.24152684211731 -13.60202407836914 -14.83179569244385  4.146376609802246 -13.36666011810303 -14.90019989013672  5.025577068328857 -13.04860687255859 -14.83179569244385  5.890982151031494 -12.69473838806152 -14.90019989013672  6.719944953918457 -12.26233673095703 -14.83179569244385  7.530462741851807 -11.79627799987793 -14.90019989013672  8.294395446777344 -11.25724601745605 -14.83179569244385  9.035561561584473 -10.68731307983398 -14.90019989013672  9.720832824707031 -10.05126762390137 -14.83179569244385  10.37942123413086 -9.387632369995117 -14.90019989013672  10.973801612854 -8.665925025939941 -14.83179569244385  11.53805923461914 -7.920429706573486 -14.90019989013672  12.03094291687012 -7.125937938690186 -14.83179569244385  12.49080085754395 -6.311886787414551 -14.90019989013672  12.87339115142822 -5.458789348602295 -14.83179569244385  13.22064399719238 -4.590707778930664 -14.90019989013672  13.48611354827881 -3.694227933883667 -14.83179569244385  13.71456336975098 -2.787607908248901 -14.90019989013672  13.85817527770996 -1.863743305206299 -14.83179569244385  13.96374702453613 -0.9347628951072693 -14.90019989013672  13.98293876647949 0 -14.83179569244385  13.96374702453613 0.9347628951072693 -14.90019989013672  13.85817527770996 1.863743305206299 -14.83179569244385  13.71456336975098 2.787607908248901 -14.90019989013672  13.48611354827881 3.694227933883667 -14.83179569244385  13.22064399719238 4.590707778930664 -14.90019989013672  12.87339115142822 5.458789348602295 -14.83179569244385  12.49080085754395 6.311886787414551 -14.90019989013672  12.03094291687012 7.125937938690186 -14.83179569244385  11.53805923461914 7.920429706573486 -14.90019989013672  10.973801612854 8.665925025939941 -14.83179569244385  10.37942123413
[...]
<PointData  Scalars="f_12"> 
<DataArray  type="Float64"  Name="f_12"  format="ascii">0.0000000000000000e+00  0.0000000000000000e+00  0.0000000000000000e+00  0.0000000000000000e+00  0.0000000000000000e+00  0.0000000000000000e+00  0.0000000000000000e+00  0.0000000000000000e+00  0.0000000000000000e+00  0.0000000000000000e+00  0.0000000000000000e+00  0.0000000000000000e+00  0.0000000000000000e+00  0.0000000000000000e+00  0.0000000000000000e+00  0.0000000000000000e+00  0.0000000000000000e+00  0.0000000000000000e+00  0.0000000000000000e+00  0.0000000000000000e+00  0.0000000000000000e+00  0.0000000000000000e+00  0.0000000000000000e+00  0.0000000000000000e+00  0.0000000000000000e+00  0.0000000000000000e+00  0.0000000000000000e+00  0.0000000000000000e+00  0.0000000000000000e+00  0.0000000000000000e+00  0.0000000000000000e+00  0.0000000000000000e+00  0.0000000000000000e+00  0.0000000000000000e+00  0.0000000000000000e+00  0.0000000000000000e+00  0.0000000000000000e+00  0.0000000000000000e+00  0.0000000000000000e+00  0.0000000000000000e+00  0.0000000000000000e+00  0.0000000000000000e+00  0.0000000000000000e+00  0.0000000000000000e+00  0.0000000000000000e+00  0.0000000000000000e+00  0.0000000000000000e+00  0.0000000000000000e+00  0.0000000000000000e+00  0.0000000000000000e+00  0.0000000000000000e+00  0.0000000000000000e+00  0.0000000000000000e+00  0.0000000000000000e+00  0.0000000000000000e+00  0.0000000000000000e+00  0.0000000000000000e+00  0.0000000000000000e+00  0.0000000000000000e+00  0.0000000000000000e+00  0.0000000000000000e+00  0.0000000000000000e+00  0.0000000000000000e+00  0.0000000000000000e+00  0.0000000000000000e+00  0.0000000000000000e+00  0.0000000000000000e+00  0.0000000000000000e+00  0.0000000000000000e+00  0.0000000000000000e+00  0.0000000000000000e+00  0.0000000000000000e+00  0.0000000000000000e+00  0.0000000000000000e+00  0.0000000000000000e+00  0.0000000000000000e+00  0.0000000000000000e+00  0.0000000000000000e+00  0.0000000000000000e+00  0.0000000000000000e+00  0.0000000000000000e+00  0.0000000000000000e+00  0.0000000000000000e+00  0.0000000000000000e+00  0.0000000000000000e+00  0.0000000000000000e+00  0.0000000000000000e+00  0.0000000000000000e+00  0.0000000000000000e+00  0.0000000000000000e+00  0.0000000000000000e+00  0.0000000000000000e+00  0.0000000000000000e+00  0.0000000000000000e+00  0.0000000000000000e+00  0.0000000000000000e+00  0.0000000000000000e+00  0.0000000000000000e+00  0.0000000000000000e+00  0.0000000000000000e+00  0.0000000000000000e+00  0.0000000000000000e+00  0.0000000000000000e+00  0.0000000000000000e+00  0.0000000000000000e+00  0.0000000000000000e+00  0.0000000000000000e+00  0.0000000000000000e+00  0.0000000000000000e+00  0.0000000000000000e+00  0.0000000000000000e+00  0.0000000000000000e+00  0.0000000000000000e+00  0.0000000000000000e+00  0.0000000000000000e+00  0.0000000000000000e+00  0.0000000000000000e+00  0.0000000000000000e+00  0.0000000000000000e+00  0.0000000000000000e+00  0.0000000000000000e+00  0.0000000000000000e+00  0.0000000000000000e+00  0.0000000000000000e+00  0.0000000000000000e+00  0.0000000000000000e+00  0.0000000000000000e+00  0.0000000000000000e+00  0.0000000000000000e+00  0.0000000000000000e+00  0.0000000000000000e+00  0.0000000000000000e+00  0.0000000000000000e+00  0.0000000000000000e+00  0.0000000000000000e+00  0.0000000000000000e+00  0.0000000000000000e+00  0.0000000000000000e+00  0.0000000000000000e+00  0.0000000000000000e+00  0.0000000000000000e+00  0.0000000000000000e+00  0.0000000000000000e+00  0.0000000000000000e+00  0.0000000000000000e+00  0.0000000000000000e+00  0.0000000000000000e+00  0.0000000000000000e+00  0.0000000000000000e+00  0.0000000000000000e+00  0.0000000000000000e+00  0.0000000000000000e+00  0.0000000000000000e+00  0.0000000000000000e+00  0.0000000000000000e+00  0.0000000000000000e+00  0.0000000000000000e+00  0.0000000000000000e+00  0.0000000000000000e+00  0.0000000000000000e+00  0.0000000000000000e+00  0.0000000000000000e+00  0.0000000000000000e+00  0.0000000000000000e+00  0.0000000000000000e+00  0.0000000000000000e+00  0.0000000000000000e+00  0.0000000000000000e+00  0.0000000000000000e+00  0.0000000000000000e+00  0.0000000000000000e+00  0.0000000000000000e+00  0.0000000000000000e+00  0.0000000000000000e+00  0.0000000000000000e+00  0.0000000000000000e+00  0.0000000000000000e+00  0.0000000000000000e+00  0.0000000000000000e+00  0.0000000000000000e+00  0.0000000000000000e+00  0.0000000000000000e+00  0.0000000000000000e+00  0.0000000000000000e+00  0.0000000000000000e+00  0.0000000000000000e+00  0.0000000000000000e+00  0.0000000000000000e+00  0.0000000000000000e+00  0.0000000000000000e+00  0.0000000000000000e+00  0.0000000000000000e+00  0.0000000000000000e+00  0.0000000000000000e+00  0.0000000000000000e+00  0.0000000000000000e+00  0.0000000000000000e+00  0.0000000000000000e+00  0.0000000000000000e+00  0.0000000000000000e+00  0.0000000000000000e+00  0.0000000000000000e+00  0.0000000000000000e+00  0.0000000000000000e+00  0.0000000000000000e+00  0.0000000000000000e+00  0.0000000000000000e+00  0.0000000000000000e+00  0.0000000000000000e+00  0.0000000000000000e+00  0.0000000000000000e+00  0.0000000000000000e+00  0.0000000000000000e+00  0.0000000000000000e+00  0.0000000000000000e+00  0.0000000000000000e+00  0.0000000000000000e+00  0.0000000000000000e+00  0.0000000000000000e+00  0.0000000000000000e+00  0.0000000000000000e+00  0.0000000000000000e+00  0.0000000000000000e+00  0.0000000000000000e+00  0.0000000000000000e+00  0.0000000000000000e+00  0.0000000000000000e+00  0.0000000000000000e+00  0.0000000000000000e+00  0.0000000000000000e+00  0.0000000000000000e+00  0.0000000000000000e+00  0.0000000000000000e+00  0.0000000000000000e+00  0.0000000000000000e+00  0.0000000000000000e+00  0.0000000000000000e+00  0.0000000000000000e+00  0.0000000000000000e+00  0.0000000000000000e+00  0.0000000000000000e+00  0.0000000000000000e+00  0.0000000000000000e+00  0.0000000000000000e+00  0.0000000000000000e+00  0.0000000000000000e+00  0.0000000000000000e+00  0.0000000000000000e+00  0.0000000000000000e+00  0.0000000000000000e+00  0.0000000000000000e+00  0.0000000000000000e+00  0.0000000000000000e+00  0.0000000000000000e+00  0.0000000000000000e+00  0.0000000000000000e+00  0.0000000000000000e+00  0.0000000000000000e+00  0.0000000000000000e+00  0.0000000000000000e+00  0.0000000000000000e+00  0.0000000000000000e+00  0.0000000000000000e+00  0.0000000000000000e+00  0.0000000000000000e+00  0.0000000000000000e+00  0.0000000000000000e+00  0.0000000000000000e+00  0.0000000000000000e+00  0.0000000000000000e+00  0.0000000000000000e+00  0.0000000000000000e+00  0.0000000000000000e+00  0.0000000000000000e+00  0.0000000000000000e+00  0.0000000000000000e+00  0.0000000000000000e+00  0.0000000000000000e+00  0.0000000000000000e+00  0.0000000000000000e+00  0.0000000000000000e+00  0.0000000000000000e+00  0.0000000000000000e+00  0.0000000000000000e+00  0.0000000000000000e+00  0.0000000000000000e+00  0.0000000000000000e+00  0.0000000000000000e+00  0.0000000000000000e+00  0.0000000000000000e+00  0.0000000000000000e+00  0.0000000000000000e+00  0.0000000000000000e+00  0.0000000000000000e+00  0.0000000000000000e+00  0.0000000000000000e+00  0.0000000000000000e+00  0.0000000000000000e+00  0.0000000000000000e+00  0.0000000000000000e+00  0.0000000000000000e+00  0.0000000000000000e+00  0.0000000000000000e+00  0.0000000000000000e+00  0.0000000000000000e+00  0.0000000000000000e+00  0.0000000000000000e+00  0.0000000000000000e+00  0.0000000000000000e+00  0.0000000000000000e+00  0.0000000000000000e+00  0.0000000000000000e+00  0.0000000000000000e+00  0.0000000000000000e+00  0.0000000000000000e+00  0.0000000000000000e+00  0.0000000000000000e+00  0.0000000000000000e+00  0.0000000000000000e+00  0.0000000000000000e+00  0.0000000000000000e+00  0.0000000000000000e+00  0.0000000000000000e+00  0.0000000000000000e+00  0.0000000000000000e+00  0.0000000000000000e+00  0.0000000000000000e+00  0.0000000000000000e+00  0.0000000000000000e+00  0.0000000000000000e+00  0.0000000000000000e+00  0.0000000000000000e+00  0.0000000000000000e+00  0.0000000000000000e+00  0.0000000000000000e+00  0.0000000000000000e+00  0.0000000000000000e+00  0.0000000000000000e+00  0.0000000000000000e+00  0.0000000000000000e+00  0.0000000000000000e+00  0.0000000000000000e+00  0.0000000000000000e+00  0.0000000000000000e+00  0.0000000000000000e+00  0.0000000000000000e+00  0.0000000000000000e+00  0.0000000000000000e+00  0.0000000000000000e+00  0.0000000000000000e+00  0.0000000000000000e+00  0.0000000000000000e+00  0.0000000000000000e+00  0.0000000000000000e+00  0.0000000000000000e+00  0.0000000000000000e+00  0.0000000000000000e+00  0.0000000000000000e+00  0.0000000000000000e+00  0.0000000000000000e+00  0.0000000000000000e+00  0.0000000000000000e+00  0.0000000000000000e+00  0.0000000000000000e+00  0.0000000000000000e+00  0.0000000000000000e+00  0.0000000000000000e+00  0.0000000000000000e+00  0.0000000000000000e+00  0.0000000000000000e+00  0.0000000000000000e+00  0.0000000000000000e+00  0.0000000000000000e+00  0.0000000000000000e+00  0.0000000000000000e+00  0.0000000000000000e+00  0.0000000000000000e+00  0.0000000000000000e+00  0.0000000000000000e+00  0.0000000000000000e+00  0.0000000000000000e+00  0.0000000000000000e+00  0.0000000000000000e+00  0.0000000000000000e+00  0.0000000000000000e+00  0.0000000000000000e+00  0.0000000000000000e+00  0.0000000000000000e+00  0.0000000000000000e+00  0.0000000000000000e+00  0.0000000000000000e+00  0.0000000000000000e+00  0.0000000000000000e+00  0.0000000000000000e+00  0.0000000000000000e+00  0.0000000000000000e+00  0.0000000000000000e+00  0.0000000000000000e+00  0.0000000000000000e+00  0.0000000000000000e+00  0.0000000000000000e+00  0.0000000000000000e+00  0.0000000000000000e+00  0.0000000000000000e+00  0.0000000000000000e+00  0.0000000000000000e+00  0.0000000000000000e+00  0.0000000000000000e+00  0.0000000000000000e+00  0.0000000000000000e+00  0.0000000000000000e+00  0.0000000000000000e+00  0.0000000000000000e+00  0.0000000000000000e+00  0.0000000000000000e+00  0.0000000000000000e+00  0.0000000000000000e+00  0.0000000000000000e+00  0.0000000000000000e+00  0.0000000000000000e+00  0.0000000000000000e+00  0.0000000000000000e+00  0.0000000000000000e+00  0.0000000000000000e+00  0.0000000000000000e+00  0.0000000000000000e+00  0.0000000000000000e+00  0.0000000000000000e+00  0.0000000000000000e+00  0.0000000000000000e+00  0.0000000000000000e+00  0.0000000000000000e+00  0.0000000000000000e+00  0.0000000000000000e+00  0.0000000000000000e+00  0.0000000000000000e+00  0.0000000000000000e+00  0.0000000000000000e+00  0.0000000000000000e+00  0.0000000000000000e+00  0.0000000000000000e+00  0.0000000000000000e+00  0.0000000000000000e+00  0.0000000000000000e+00  0.0000000000000000e+00  0.0000000000000000e+00  0.0000000000000000e+00  0.0000000000000000e+00  0.0000000000000000e+00  0.0000000000000000e+00  0.0000000000000000e+00  0.0000000000000000e+00  0.0000000000000000e+00  0.0000000000000000e+00  0.0000000000000000e+00  0.0000000000000000e+00  0.0000000000000000e+00  0.0000000000000000e+00  0.0000000000000000e+00  0.0000000000000000e+00  0.0000000000000000e+00  0.0000000000000000e+00  0.0000000000000000e+00  0.0000000000000000e+00  0.0000000000000000e+00  0.0000000000000000e+00  0.0000000000000000e+00  0.0000000000000000e+00  0.0000000000000000e+00  0.0000000000000000e+00  0.0000000000000000e+00  0.0000000000000000e+00  0.0000000000000000e+00  0.0000000000000000e+00  0.0000000000000000e+00  0.0000000000000000e+00  0.0000000000000000e+00  0.0000000000000000e+00  0.0000000000000000e+00  0.0000000000000000e+00  0.0000000000000000e+00  0.0000000000000000e+00  0.0000000000000000e+00  0.0000000000000000e+00  0.0000000000000000e+00  0.0000000000000000e+00  0.0000000000000000e+00  0.0000000000000000e+00  0.0000000000000000e+00  0.0000000000000000e+00  0.0000000000000000e+00  0.0000000000000000e+00  0.0000000000000000e+00  0.0000000000000000e+00  0.0000000000000000e+00  0.0000000000000000e+00  0.0000000000000000e+00  0.0000000000000000e+00  0.0000000000000000e+00  0.0000000000000000e+00  0.0000000000000000e+00  0.0000000000000000e+00  0.0000000000000000e+00  0.0000000000000000e+00  0.0000000000000000e+00  0.0000000000000000e+00  0.0000000000000000e+00  0.0000000000000000e+00  0.0000000000000000e+00  0.0000000000000000e+00  0.0000000000000000e+00  0.0000000000000000e+00  0.0000000000000000e+00  0.0000000000000000e+00  0.0000000000000000e+00  0.0000000000000000e+00  0.0000000000000000e+00  0.0000000000000000e+00  0.0000000000000000e+00  0.0000000000000000e+00  0.0000000000000000e+00  0.0000000000000000e+00  0.0000000000000000e+00  0.0000000000000000e+00  0.0000000000000000e+00  0.0000000000000000e+00  0.0000000000000000e+00  0.0000000000000000e+00  0.0000000000000000e+00  0.0000000000000000e+00  0.0000000000000000e+00  0.0000000000000000e+00  0.0000000000000000e+00  0.0000000000000000e+00  0.0000000000000000e+00  0.0000000000000000e+00  0.0000000000000000e+00  0.0000000000000000e+00  0.0000000000000000e+00  0.0000000000000000e+00  0.0000000000000000e+00  0.0000000000000000e+00  0.0000000000000000e+00  0.0000000000000000e+00  0.0000000000000000e+00  0.0000000000000000e+00  0.0000000000000000e+00  0.0000000000000000e+00  0.0000000000000000e+00  0.0000000000000000e+00  0.0000000000000000e+00  0.0000000000000000e+00  0.0000000000000000e+00  0.0000000000000000e+00  0.0000000000000000e+00  0.0000000000000000e+00  0.0000000000000000e+00  0.0000000000000000e+00  0.0000000000000000e+00  0.0000000000000000e+00  0.0000000000000000e+00  0.0000000000000000e+00  0.0000000000000000e+00  0.0000000000000000e+00  0.0000000000000000e+00  0.0000000000000000e+00  0.0000000000000000e+00  0.0000000000000000e+00  0.0000000000000000e+00  0.0000000000000000e+00  0.0000000000000000e+00  0.0000000000000000e+00  0.0000000000000000e+00  0.0000000000000000e+00  0.0000000000000000e+00  0.0000000000000000e+00  0.0000000000000000e+00  0.0000000000000000e+00  0.0000000000000000e+00  0.0000000000000000e+00  0.0000000000000000e+00  0.0000000000000000e+00  0.0000000000000000e+00  0.0000000000000000e+00  0.0000000000000000e+00  0.0000000000000000e+00  0.0000000000000000e+00  0.0000000000000000e+00  0.0000000000000000e+00  0.0000000000000000e+00  0.0000000000000000e+00  0.0000000000000000e+00  0.0000000000000000e+00  0.0000000000000000e+00  0.0000000000000000e+00  0.0000000000000000e+00  0.0000000000000000e+00  0.0000000000000000e+00  0.0000000000000000e+00  0.0000000000000000e+00  0.0000000000000000e+00  0.0000000000000000e+00  0.0000000000000000e+00  0.0000000000000000e+00  0.0000000000000000e+00  0.0000000000000000e+00  0.0000000000000000e+00  0.0000000000000000e+00  0.0000000000000000e+00  0.0000000000000000e+00  0.0000000000000000e+00  0.0000000000000000e+00  0.0000000000000000e+00  0.0000000000000000e+00  0.0000000000000000e+00  0.0000000000000000e+00  0.0000000000000000e+00  0.0000000000000000e+00  0.0000000000000000e+00  0.0000000000000000e+00  0.0000000000000000e+00  0.0000000000000000e+00  0.0000000000000000e+00  0.0000000000000000e+00  0.0000000000000000e+00  0.0000000000000000e+00  0.0000000000000000e+00  0.0000000000000000e+00  0.0000000000000000e+00  0.0000000000000000e+00  0.0000000000000000e+00  0.0000000000000000e+00  0.0000000000000000e+00  0.0000000000000000e+00  0.0000000000000000e+00  0.0000000000000000e+00  0.0000000000000000e+00  0.0000000000000000e+00  0.0000000000000000e+00  0.0000000000000000e+00  0.0000000000000000e+00  0.0000000000000000e+00  0.0000000000000000e+00  0.0000000000000000e+00  0.0000000000000000e+00  0.0000000000000000e+00  0.0000000000000000e+00  0.0000000000000000e+00  0.0000000000000000e+00  0.0000000000000000e+00  0.0000000000000000e+00  0.0000000000000000e+00  0.0000000000000000e+00  0.0000000000000000e+00  0.0000000000000000e+00  0.0000000000000000e+00  0.0000000000000000e+00  0.0000000000000000e+00  0.0000000000000000e+00  0.0000000000000000e+00  0.0000000000000000e+00  0.0000000000000000e+00  0.0000000000000000e+00  0.0000000000000000e+00  0.0000000000000000e+00  0.0000000000000000e+00  0.0000000000000000e+00  0.0000000000000000e+00  0.0000000000000000e+00  0.0000000000000000e+00  0.0000000000000000e+00  0.0000000000000000e+00  0.0000000000000000e+00  0.0000000000000000e+00  0.0000000000000000e+00  0.0000000000000000e+00  0.0000000000000000e+00  0.0000000000000000e+00  0.0000000000000000e+00  0.0000000000000000e+00  0.0000000000000000e+00  0.0000000000000000e+00  0.0000000000000000e+00  0.0000000000000000e+00  0.0000000000000000e+00  0.0000000000000000e+00  0.0000000000000000e+00  0.0000000000000000e+00  0.0000000000000000e+00  0.0000000000000000e+00  0.0000000000000000e+00  0.0000000000000000e+00  0.0000000000000000e+00  0.0000000000000000e+00  0.0000000000000000e+00  0.0000000000000000e+00  0.0000000000000000e+00  0.0000000000000000e+00  0.0000000000000000e+00  0.0000000000000000e+00  0.0000000000000000e+00  0.0000000000000000e+00  0.0000000000000000e+00  0.0000000000000000e+00  0.0000000000000000e+00  0.0000000000000000e+00  0.0000000000000000e+00  0.0000000000000000e+00  0.0000000000000000e+00  0.0000000000000000e+00  0.0000000000000000e+00  0.0000000000000000e+00  0.0000000000000000e+00  0.0000000000000000e+00  0.0000000000000000e+00  0.0000000000000000e+00  0.0000000000000000e+00  0.0000000000000000e+00  0.0000000000000000e+00  0.0000000000000000e+00  0.0000000000000000e+00  0.0000000000000000e+00  0.0000000000000000e+00  0.0000000000000000e+00  0.0000000000000000e+00  0.0000000000000000e+00  0.0000000000000000e+00  0.0000000000000000e+00  0.0000000000000000e+00  0.0000000000000000e+00  0.0000000000000000e+00  0.0000000000000000e+00  0.0000000000000000e+00  0.0000000000000000e+00  0.0000000000000000e+00  0.0000000000000000e+00  0.0000000000000000e+00  0.0000000000000000e+00  0.0000000000000000e+00  0.0000000000000000e+00  0.0000000000000000e+00  0.0000000000000000e+00  0.0000000000000000e+00  0.0000000000000000e+00  0.0000000000000000e+00  0.0000000000000000e+00  0.0000000000000000e+00  0.0000000000000000e+00  0.0000000000000000e+00  0.0000000000000000e+00  0.0000000000000000e+00  0.0000000000000000e+00  0.0000000000000000e+00  0.0000000000000000e+00  0.0000000000000000e+00  0.0000000000000000e+00  0.0000000000000000e+00  0.0000000000000000e+00  0.0000000000000000e+00  0.0000000000000000e+00  0.0000000000000000e+00  0.0000000000000000e+00  0.0000000000000000e+00  0.0000000000000000e+00  0.0000000000000000e+00  0.0000000000000000e+00  0.0000000000000000e+00  0.0000000000000000e+00  0.0000000000000000e+00  0.0000000000000000e+00  0.0000000000000000e+00  0.0000000000000000e+00  0.0000000000000000e+00  0.0000000000000000e+00  0.0000000000000000e+00  0.0000000000000000e+00  0.0000000000000000e+00  0.0000000000000000e+00  0.0000000000000000e+00  0.0000000000000000e+00  0.0000000000000000e+00  0.0000000000000000e+00  0.0000000000000000e+00  0.0000000000000000e+00  0.0000000000000000e+00  0.0000000000000000e+00  0.0000000000000000e+00  0.0000000000000000e+00  0.0000000000000000e+00  0.0000000000000000e+00  0.0000000000000000e+00  0.0000000000000000e+00  0.0000000000000000e+00  0.0000000000000000e+00  0.0000000000000000e+00  0.0000000000000000e+00  0.0000000000000000e+00  0.0000000000000000e+00  0.0000000000000000e+00  0.0000000000000000e+00  0.0000000000000000e+00  0.0000000000000000e+00  0.0000000000000000e+00  0.0000000000000000e+00  0.0000000000000000e+00  0.0000000000000000e+00  0.0000000000000000e+00  0.0000000000000000e+00  0.0000000000000000e+00  0.0000000000000000e+00  0.0000000000000000e+00  0.0000000000000000e+00  0.0000000000000000e+00  0.0000000000000000e+00  0.0000000000000000e+00  0.0000000000000000e+00  0.0000000000000000e+00  0.0000000000000000e+00  0.0000000000000000e+00  0.0000000000000000e+00  0.0000000000000000e+00  0.0000000000000000e+00  0.0000000000000000e+00  0.0000000000000000e+00  0.0000000000000000e+00  0.0000000000000000e+00  0.0000000000000000e+00  0.0000000000000000e+00  0.0000000000000000e+00  0.0000000000000000e